#                                                                     
#                                                                     
# Y88b    /   e           e    e      888~~\    ,88~-_                
#  Y88b  /   d8b         d8b  d8b     888   |  d888   \               
#   Y88b/   /Y88b       d888bdY88b    888 _/  88888    |              
#    Y8Y   /  Y88b     / Y88Y Y888b   888  \  88888    |              
#     Y   /____Y88b   /   YY   Y888b  888   |  Y888   /               
#    /   /      Y88b /          Y888b 888__/    `88_-~                
#                                                                     
#                                                                     
#      Version 5.0.3 Revision 19584 Hash 1cce2ba63                    
#                       Branch is                                     
#           MPI+OpenMP+SLK+SLEPC+HDF5_IO Build                        
#               http://www.yambo-code.org                             
#
   CRYSTAL
   PRIMVEC
     72.9274445      0.00000000      0.00000000   
    -36.4637222      63.1570244      0.00000000   
     0.00000000      0.00000000      15.9999990   
   PRIMCOORD
    1324     1
-1  17.36368  30.07477   0.00000
   28   0.01113   0.01900   3.00009
   28  -1.72524   3.02648   3.00009
   28  -3.46161   6.03395   3.00009
   28  -5.19797   9.04143   3.00009
   28  -6.93434  12.04891   3.00009
   28  -8.67071  15.05639   3.00009
   28 -10.40708  18.06386   3.00009
   28 -12.14344  21.07134   3.00009
   28 -13.87981  24.07882   3.00009
   28 -15.61618  27.08629   3.00009
   28 -17.35255  30.09377   3.00009
   28 -19.08891  33.10125   3.00009
   28 -20.82528  36.10873   3.00009
   28 -22.56165  39.11620   3.00009
   28 -24.29802  42.12368   3.00009
   28 -26.03439  45.13116   3.00009
   28 -27.77075  48.13863   3.00009
   28 -29.50712  51.14611   3.00009
   28 -31.24349  54.15359   3.00009
   28 -32.97985  57.16106   3.00009
   28 -34.71622  60.16854   3.00009
   28   3.48387   0.01900   3.00009
   28   1.74750   3.02648   3.00009
   28   0.01113   6.03395   3.00009
   28  -1.72524   9.04143   3.00009
   28  -3.46161  12.04891   3.00009
   28  -5.19797  15.05639   3.00009
   28  -6.93434  18.06386   3.00009
   28  -8.67071  21.07134   3.00009
   28 -10.40708  24.07882   3.00009
   28 -12.14344  27.08629   3.00009
   28 -13.87981  30.09377   3.00009
   28 -15.61618  33.10125   3.00009
   28 -17.35255  36.10873   3.00009
   28 -19.08891  39.11620   3.00009
   28 -20.82528  42.12368   3.00009
   28 -22.56165  45.13116   3.00009
   28 -24.29802  48.13863   3.00009
   28 -26.03439  51.14611   3.00009
   28 -27.77075  54.15359   3.00009
   28 -29.50712  57.16106   3.00009
   28 -31.24349  60.16854   3.00009
   28   6.95660   0.01900   3.00009
   28   5.22023   3.02648   3.00009
   28   3.48387   6.03395   3.00009
   28   1.74750   9.04143   3.00009
   28   0.01113  12.04891   3.00009
   28  -1.72524  15.05639   3.00009
   28  -3.46161  18.06386   3.00009
   28  -5.19797  21.07134   3.00009
   28  -6.93434  24.07882   3.00009
   28  -8.67071  27.08629   3.00009
   28 -10.40708  30.09377   3.00009
   28 -12.14344  33.10125   3.00009
   28 -13.87981  36.10873   3.00009
   28 -15.61618  39.11620   3.00009
   28 -17.35255  42.12368   3.00009
   28 -19.08891  45.13116   3.00009
   28 -20.82528  48.13863   3.00009
   28 -22.56165  51.14611   3.00009
   28 -24.29802  54.15359   3.00009
   28 -26.03439  57.16106   3.00009
   28 -27.77076  60.16854   3.00009
   28  10.42934   0.01900   3.00009
   28   8.69297   3.02648   3.00009
   28   6.95660   6.03395   3.00009
   28   5.22023   9.04143   3.00009
   28   3.48387  12.04891   3.00009
   28   1.74750  15.05639   3.00009
   28   0.01113  18.06386   3.00009
   28  -1.72524  21.07134   3.00009
   28  -3.46161  24.07882   3.00009
   28  -5.19797  27.08629   3.00009
   28  -6.93434  30.09377   3.00009
   28  -8.67071  33.10125   3.00009
   28 -10.40708  36.10873   3.00009
   28 -12.14344  39.11620   3.00009
   28 -13.87981  42.12368   3.00009
   28 -15.61618  45.13116   3.00009
   28 -17.35255  48.13863   3.00009
   28 -19.08891  51.14611   3.00009
   28 -20.82528  54.15359   3.00009
   28 -22.56165  57.16106   3.00009
   28 -24.29802  60.16854   3.00009
   28  13.90207   0.01900   3.00009
   28  12.16570   3.02648   3.00009
   28  10.42934   6.03395   3.00009
   28   8.69297   9.04143   3.00009
   28   6.95660  12.04891   3.00009
   28   5.22023  15.05639   3.00009
   28   3.48387  18.06386   3.00009
   28   1.74750  21.07134   3.00009
   28   0.01113  24.07882   3.00009
   28  -1.72524  27.08629   3.00009
   28  -3.46161  30.09377   3.00009
   28  -5.19797  33.10125   3.00009
   28  -6.93434  36.10873   3.00009
   28  -8.67071  39.11620   3.00009
   28 -10.40707  42.12368   3.00009
   28 -12.14344  45.13116   3.00009
   28 -13.87981  48.13863   3.00009
   28 -15.61618  51.14611   3.00009
   28 -17.35255  54.15359   3.00009
   28 -19.08891  57.16106   3.00009
   28 -20.82528  60.16854   3.00009
   28  17.37481   0.01900   3.00009
   28  15.63844   3.02648   3.00009
   28  13.90207   6.03395   3.00009
   28  12.16570   9.04143   3.00009
   28  10.42934  12.04891   3.00009
   28   8.69297  15.05639   3.00009
   28   6.95660  18.06386   3.00009
   28   5.22023  21.07134   3.00009
   28   3.48387  24.07882   3.00009
   28   1.74750  27.08629   3.00009
   28   0.01113  30.09377   3.00009
   28  -1.72524  33.10125   3.00009
   28  -3.46161  36.10873   3.00009
   28  -5.19797  39.11620   3.00009
   28  -6.93434  42.12368   3.00009
   28  -8.67071  45.13116   3.00009
   28 -10.40708  48.13863   3.00009
   28 -12.14344  51.14611   3.00009
   28 -13.87981  54.15359   3.00009
   28 -15.61618  57.16106   3.00009
   28 -17.35255  60.16854   3.00009
   28  20.84754   0.01900   3.00009
   28  19.11117   3.02648   3.00009
   28  17.37481   6.03395   3.00009
   28  15.63844   9.04143   3.00009
   28  13.90207  12.04891   3.00009
   28  12.16570  15.05639   3.00009
   28  10.42934  18.06386   3.00009
   28   8.69297  21.07134   3.00009
   28   6.95660  24.07882   3.00009
   28   5.22023  27.08629   3.00009
   28   3.48386  30.09377   3.00009
   28   1.74750  33.10125   3.00009
   28   0.01113  36.10873   3.00009
   28  -1.72524  39.11620   3.00009
   28  -3.46161  42.12368   3.00009
   28  -5.19797  45.13116   3.00009
   28  -6.93434  48.13863   3.00009
   28  -8.67071  51.14611   3.00009
   28 -10.40708  54.15359   3.00009
   28 -12.14344  57.16106   3.00009
   28 -13.87981  60.16854   3.00009
   28  24.32028   0.01900   3.00009
   28  22.58391   3.02648   3.00009
   28  20.84754   6.03395   3.00009
   28  19.11117   9.04143   3.00009
   28  17.37481  12.04891   3.00009
   28  15.63844  15.05639   3.00009
   28  13.90207  18.06386   3.00009
   28  12.16570  21.07134   3.00009
   28  10.42933  24.07882   3.00009
   28   8.69297  27.08629   3.00009
   28   6.95660  30.09377   3.00009
   28   5.22023  33.10125   3.00009
   28   3.48386  36.10873   3.00009
   28   1.74750  39.11620   3.00009
   28   0.01113  42.12368   3.00009
   28  -1.72524  45.13116   3.00009
   28  -3.46161  48.13863   3.00009
   28  -5.19798  51.14611   3.00009
   28  -6.93434  54.15359   3.00009
   28  -8.67071  57.16106   3.00009
   28 -10.40708  60.16854   3.00009
   28  27.79301   0.01900   3.00009
   28  26.05664   3.02648   3.00009
   28  24.32028   6.03395   3.00009
   28  22.58391   9.04143   3.00009
   28  20.84754  12.04891   3.00009
   28  19.11117  15.05639   3.00009
   28  17.37481  18.06386   3.00009
   28  15.63844  21.07134   3.00009
   28  13.90207  24.07882   3.00009
   28  12.16570  27.08629   3.00009
   28  10.42933  30.09377   3.00009
   28   8.69297  33.10125   3.00009
   28   6.95660  36.10873   3.00009
   28   5.22023  39.11620   3.00009
   28   3.48387  42.12368   3.00009
   28   1.74750  45.13116   3.00009
   28   0.01113  48.13863   3.00009
   28  -1.72524  51.14611   3.00009
   28  -3.46161  54.15359   3.00009
   28  -5.19797  57.16106   3.00009
   28  -6.93434  60.16854   3.00009
   28  31.26575   0.01900   3.00009
   28  29.52938   3.02648   3.00009
   28  27.79301   6.03395   3.00009
   28  26.05665   9.04143   3.00009
   28  24.32028  12.04891   3.00009
   28  22.58391  15.05639   3.00009
   28  20.84754  18.06386   3.00009
   28  19.11118  21.07134   3.00009
   28  17.37481  24.07882   3.00009
   28  15.63844  27.08629   3.00009
   28  13.90207  30.09377   3.00009
   28  12.16570  33.10125   3.00009
   28  10.42934  36.10873   3.00009
   28   8.69297  39.11620   3.00009
   28   6.95660  42.12368   3.00009
   28   5.22023  45.13116   3.00009
   28   3.48387  48.13863   3.00009
   28   1.74750  51.14611   3.00009
   28   0.01113  54.15359   3.00009
   28  -1.72524  57.16106   3.00009
   28  -3.46161  60.16854   3.00009
   28  34.73849   0.01900   3.00009
   28  33.00212   3.02648   3.00009
   28  31.26575   6.03395   3.00009
   28  29.52938   9.04143   3.00009
   28  27.79302  12.04891   3.00009
   28  26.05665  15.05639   3.00009
   28  24.32028  18.06386   3.00009
   28  22.58391  21.07134   3.00009
   28  20.84755  24.07882   3.00009
   28  19.11118  27.08629   3.00009
   28  17.37481  30.09377   3.00009
   28  15.63844  33.10125   3.00009
   28  13.90207  36.10873   3.00009
   28  12.16571  39.11620   3.00009
   28  10.42934  42.12368   3.00009
   28   8.69297  45.13116   3.00009
   28   6.95660  48.13863   3.00009
   28   5.22024  51.14611   3.00009
   28   3.48387  54.15359   3.00009
   28   1.74750  57.16106   3.00009
   28   0.01113  60.16854   3.00009
   28  38.21122   0.01900   3.00009
   28  36.47485   3.02648   3.00009
   28  34.73848   6.03395   3.00009
   28  33.00212   9.04143   3.00009
   28  31.26575  12.04891   3.00009
   28  29.52938  15.05639   3.00009
   28  27.79301  18.06386   3.00009
   28  26.05665  21.07134   3.00009
   28  24.32028  24.07882   3.00009
   28  22.58391  27.08629   3.00009
   28  20.84754  30.09377   3.00009
   28  19.11118  33.10125   3.00009
   28  17.37481  36.10873   3.00009
   28  15.63844  39.11620   3.00009
   28  13.90207  42.12368   3.00009
   28  12.16570  45.13116   3.00009
   28  10.42934  48.13863   3.00009
   28   8.69297  51.14611   3.00009
   28   6.95660  54.15359   3.00009
   28   5.22023  57.16106   3.00009
   28   3.48386  60.16854   3.00009
   28  41.68396   0.01900   3.00009
   28  39.94759   3.02648   3.00009
   28  38.21122   6.03395   3.00009
   28  36.47485   9.04143   3.00009
   28  34.73849  12.04891   3.00009
   28  33.00212  15.05639   3.00009
   28  31.26575  18.06386   3.00009
   28  29.52938  21.07134   3.00009
   28  27.79301  24.07882   3.00009
   28  26.05665  27.08629   3.00009
   28  24.32028  30.09377   3.00009
   28  22.58391  33.10125   3.00009
   28  20.84754  36.10873   3.00009
   28  19.11118  39.11620   3.00009
   28  17.37481  42.12368   3.00009
   28  15.63844  45.13116   3.00009
   28  13.90207  48.13863   3.00009
   28  12.16570  51.14611   3.00009
   28  10.42934  54.15359   3.00009
   28   8.69297  57.16106   3.00009
   28   6.95660  60.16854   3.00009
   28  45.15669   0.01900   3.00009
   28  43.42033   3.02648   3.00009
   28  41.68396   6.03395   3.00009
   28  39.94759   9.04143   3.00009
   28  38.21122  12.04891   3.00009
   28  36.47485  15.05639   3.00009
   28  34.73849  18.06386   3.00009
   28  33.00212  21.07134   3.00009
   28  31.26575  24.07882   3.00009
   28  29.52938  27.08629   3.00009
   28  27.79301  30.09377   3.00009
   28  26.05665  33.10125   3.00009
   28  24.32028  36.10873   3.00009
   28  22.58391  39.11620   3.00009
   28  20.84755  42.12368   3.00009
   28  19.11118  45.13116   3.00009
   28  17.37481  48.13863   3.00009
   28  15.63844  51.14611   3.00009
   28  13.90207  54.15359   3.00009
   28  12.16571  57.16106   3.00009
   28  10.42934  60.16854   3.00009
   28  48.62943   0.01900   3.00009
   28  46.89306   3.02648   3.00009
   28  45.15669   6.03395   3.00009
   28  43.42032   9.04143   3.00009
   28  41.68395  12.04891   3.00009
   28  39.94759  15.05639   3.00009
   28  38.21122  18.06386   3.00009
   28  36.47485  21.07134   3.00009
   28  34.73848  24.07882   3.00009
   28  33.00211  27.08629   3.00009
   28  31.26575  30.09377   3.00009
   28  29.52938  33.10125   3.00009
   28  27.79301  36.10873   3.00009
   28  26.05664  39.11620   3.00009
   28  24.32028  42.12368   3.00009
   28  22.58391  45.13116   3.00009
   28  20.84754  48.13863   3.00009
   28  19.11117  51.14611   3.00009
   28  17.37481  54.15359   3.00009
   28  15.63844  57.16106   3.00009
   28  13.90207  60.16854   3.00009
   28  52.10216   0.01900   3.00009
   28  50.36580   3.02648   3.00009
   28  48.62943   6.03395   3.00009
   28  46.89306   9.04143   3.00009
   28  45.15669  12.04891   3.00009
   28  43.42032  15.05639   3.00009
   28  41.68396  18.06386   3.00009
   28  39.94759  21.07134   3.00009
   28  38.21122  24.07882   3.00009
   28  36.47485  27.08629   3.00009
   28  34.73848  30.09377   3.00009
   28  33.00212  33.10125   3.00009
   28  31.26575  36.10873   3.00009
   28  29.52938  39.11620   3.00009
   28  27.79301  42.12368   3.00009
   28  26.05665  45.13116   3.00009
   28  24.32028  48.13863   3.00009
   28  22.58391  51.14611   3.00009
   28  20.84754  54.15359   3.00009
   28  19.11118  57.16106   3.00009
   28  17.37481  60.16854   3.00009
   28  55.57490   0.01900   3.00009
   28  53.83853   3.02648   3.00009
   28  52.10216   6.03395   3.00009
   28  50.36580   9.04143   3.00009
   28  48.62943  12.04891   3.00009
   28  46.89306  15.05639   3.00009
   28  45.15669  18.06386   3.00009
   28  43.42033  21.07134   3.00009
   28  41.68396  24.07882   3.00009
   28  39.94759  27.08629   3.00009
   28  38.21122  30.09377   3.00009
   28  36.47485  33.10125   3.00009
   28  34.73849  36.10873   3.00009
   28  33.00212  39.11620   3.00009
   28  31.26575  42.12368   3.00009
   28  29.52938  45.13116   3.00009
   28  27.79301  48.13863   3.00009
   28  26.05665  51.14611   3.00009
   28  24.32028  54.15359   3.00009
   28  22.58391  57.16106   3.00009
   28  20.84754  60.16854   3.00009
   28  59.04763   0.01900   3.00009
   28  57.31127   3.02648   3.00009
   28  55.57490   6.03395   3.00009
   28  53.83853   9.04143   3.00009
   28  52.10217  12.04891   3.00009
   28  50.36580  15.05639   3.00009
   28  48.62943  18.06386   3.00009
   28  46.89306  21.07134   3.00009
   28  45.15669  24.07882   3.00009
   28  43.42033  27.08629   3.00009
   28  41.68396  30.09377   3.00009
   28  39.94759  33.10125   3.00009
   28  38.21122  36.10873   3.00009
   28  36.47485  39.11620   3.00009
   28  34.73849  42.12368   3.00009
   28  33.00212  45.13116   3.00009
   28  31.26575  48.13863   3.00009
   28  29.52938  51.14611   3.00009
   28  27.79301  54.15359   3.00009
   28  26.05665  57.16106   3.00009
   28  24.32028  60.16854   3.00009
   28  62.52037   0.01900   3.00009
   28  60.78400   3.02648   3.00009
   28  59.04763   6.03395   3.00009
   28  57.31127   9.04143   3.00009
   28  55.57490  12.04891   3.00009
   28  53.83853  15.05639   3.00009
   28  52.10217  18.06386   3.00009
   28  50.36580  21.07134   3.00009
   28  48.62943  24.07882   3.00009
   28  46.89306  27.08629   3.00009
   28  45.15669  30.09377   3.00009
   28  43.42033  33.10125   3.00009
   28  41.68396  36.10873   3.00009
   28  39.94759  39.11620   3.00009
   28  38.21122  42.12368   3.00009
   28  36.47485  45.13116   3.00009
   28  34.73849  48.13863   3.00009
   28  33.00212  51.14611   3.00009
   28  31.26575  54.15359   3.00009
   28  29.52938  57.16106   3.00009
   28  27.79301  60.16854   3.00009
   28  65.99310   0.01900   3.00009
   28  64.25674   3.02648   3.00009
   28  62.52037   6.03395   3.00009
   28  60.78400   9.04143   3.00009
   28  59.04763  12.04891   3.00009
   28  57.31126  15.05639   3.00009
   28  55.57490  18.06386   3.00009
   28  53.83853  21.07134   3.00009
   28  52.10216  24.07882   3.00009
   28  50.36579  27.08629   3.00009
   28  48.62943  30.09377   3.00009
   28  46.89306  33.10125   3.00009
   28  45.15669  36.10873   3.00009
   28  43.42032  39.11620   3.00009
   28  41.68396  42.12368   3.00009
   28  39.94759  45.13116   3.00009
   28  38.21122  48.13863   3.00009
   28  36.47485  51.14611   3.00009
   28  34.73848  54.15359   3.00009
   28  33.00212  57.16106   3.00009
   28  31.26575  60.16854   3.00009
   28  69.46584   0.01900   3.00009
   28  67.72948   3.02648   3.00009
   28  65.99311   6.03395   3.00009
   28  64.25674   9.04143   3.00009
   28  62.52037  12.04891   3.00009
   28  60.78400  15.05639   3.00009
   28  59.04764  18.06386   3.00009
   28  57.31127  21.07134   3.00009
   28  55.57490  24.07882   3.00009
   28  53.83853  27.08629   3.00009
   28  52.10217  30.09377   3.00009
   28  50.36580  33.10125   3.00009
   28  48.62943  36.10873   3.00009
   28  46.89306  39.11620   3.00009
   28  45.15670  42.12368   3.00009
   28  43.42033  45.13116   3.00009
   28  41.68396  48.13863   3.00009
   28  39.94759  51.14611   3.00009
   28  38.21122  54.15359   3.00009
   28  36.47486  57.16106   3.00009
   28  34.73849  60.16854   3.00009
   17   0.01123   2.02416   1.67785
   17  -1.72514   5.03163   1.67785
   17  -3.46150   8.03911   1.67785
   17  -5.19787  11.04659   1.67785
   17  -6.93424  14.05407   1.67785
   17  -8.67061  17.06154   1.67785
   17 -10.40697  20.06902   1.67785
   17 -12.14334  23.07650   1.67785
   17 -13.87971  26.08397   1.67785
   17 -15.61608  29.09145   1.67785
   17 -17.35245  32.09893   1.67785
   17 -19.08881  35.10641   1.67785
   17 -20.82518  38.11388   1.67785
   17 -22.56155  41.12136   1.67785
   17 -24.29791  44.12884   1.67785
   17 -26.03428  47.13631   1.67785
   17 -27.77065  50.14379   1.67785
   17 -29.50702  53.15127   1.67785
   17 -31.24339  56.15874   1.67785
   17 -32.97975  59.16622   1.67785
   17 -34.71612  62.17370   1.67785
   17   3.48397   2.02416   1.67785
   17   1.74760   5.03163   1.67785
   17   0.01123   8.03911   1.67785
   17  -1.72514  11.04659   1.67785
   17  -3.46150  14.05407   1.67785
   17  -5.19787  17.06154   1.67785
   17  -6.93424  20.06902   1.67785
   17  -8.67061  23.07650   1.67785
   17 -10.40697  26.08397   1.67785
   17 -12.14334  29.09145   1.67785
   17 -13.87971  32.09893   1.67785
   17 -15.61608  35.10641   1.67785
   17 -17.35244  38.11388   1.67785
   17 -19.08881  41.12136   1.67785
   17 -20.82518  44.12884   1.67785
   17 -22.56155  47.13631   1.67785
   17 -24.29792  50.14379   1.67785
   17 -26.03428  53.15127   1.67785
   17 -27.77065  56.15874   1.67785
   17 -29.50702  59.16622   1.67785
   17 -31.24339  62.17370   1.67785
   17   6.95670   2.02416   1.67785
   17   5.22034   5.03163   1.67785
   17   3.48397   8.03911   1.67785
   17   1.74760  11.04659   1.67785
   17   0.01123  14.05407   1.67785
   17  -1.72514  17.06154   1.67785
   17  -3.46150  20.06902   1.67785
   17  -5.19787  23.07650   1.67785
   17  -6.93424  26.08397   1.67785
   17  -8.67061  29.09145   1.67785
   17 -10.40697  32.09893   1.67785
   17 -12.14334  35.10641   1.67785
   17 -13.87971  38.11388   1.67785
   17 -15.61608  41.12136   1.67785
   17 -17.35244  44.12884   1.67785
   17 -19.08881  47.13631   1.67785
   17 -20.82518  50.14379   1.67785
   17 -22.56155  53.15127   1.67785
   17 -24.29792  56.15874   1.67785
   17 -26.03428  59.16622   1.67785
   17 -27.77065  62.17370   1.67785
   17  10.42944   2.02416   1.67785
   17   8.69307   5.03163   1.67785
   17   6.95670   8.03911   1.67785
   17   5.22034  11.04659   1.67785
   17   3.48397  14.05407   1.67785
   17   1.74760  17.06154   1.67785
   17   0.01123  20.06902   1.67785
   17  -1.72513  23.07650   1.67785
   17  -3.46150  26.08397   1.67785
   17  -5.19787  29.09145   1.67785
   17  -6.93424  32.09893   1.67785
   17  -8.67061  35.10641   1.67785
   17 -10.40697  38.11388   1.67785
   17 -12.14334  41.12136   1.67785
   17 -13.87971  44.12884   1.67785
   17 -15.61608  47.13631   1.67785
   17 -17.35244  50.14379   1.67785
   17 -19.08881  53.15127   1.67785
   17 -20.82518  56.15874   1.67785
   17 -22.56155  59.16622   1.67785
   17 -24.29792  62.17370   1.67785
   17  13.90217   2.02416   1.67785
   17  12.16581   5.03163   1.67785
   17  10.42944   8.03911   1.67785
   17   8.69307  11.04659   1.67785
   17   6.95670  14.05407   1.67785
   17   5.22034  17.06154   1.67785
   17   3.48397  20.06902   1.67785
   17   1.74760  23.07650   1.67785
   17   0.01123  26.08397   1.67785
   17  -1.72514  29.09145   1.67785
   17  -3.46150  32.09893   1.67785
   17  -5.19787  35.10641   1.67785
   17  -6.93424  38.11388   1.67785
   17  -8.67061  41.12136   1.67785
   17 -10.40697  44.12884   1.67785
   17 -12.14334  47.13631   1.67785
   17 -13.87971  50.14379   1.67785
   17 -15.61608  53.15127   1.67785
   17 -17.35245  56.15874   1.67785
   17 -19.08881  59.16622   1.67785
   17 -20.82518  62.17370   1.67785
   17  17.37491   2.02416   1.67785
   17  15.63854   5.03163   1.67785
   17  13.90217   8.03911   1.67785
   17  12.16581  11.04659   1.67785
   17  10.42944  14.05407   1.67785
   17   8.69307  17.06154   1.67785
   17   6.95670  20.06902   1.67785
   17   5.22034  23.07650   1.67785
   17   3.48397  26.08397   1.67785
   17   1.74760  29.09145   1.67785
   17   0.01123  32.09893   1.67785
   17  -1.72513  35.10641   1.67785
   17  -3.46150  38.11388   1.67785
   17  -5.19787  41.12136   1.67785
   17  -6.93424  44.12884   1.67785
   17  -8.67060  47.13631   1.67785
   17 -10.40697  50.14379   1.67785
   17 -12.14334  53.15127   1.67785
   17 -13.87971  56.15874   1.67785
   17 -15.61608  59.16622   1.67785
   17 -17.35245  62.17370   1.67785
   17  20.84764   2.02416   1.67785
   17  19.11128   5.03163   1.67785
   17  17.37491   8.03911   1.67785
   17  15.63854  11.04659   1.67785
   17  13.90217  14.05407   1.67785
   17  12.16581  17.06154   1.67785
   17  10.42944  20.06902   1.67785
   17   8.69307  23.07650   1.67785
   17   6.95670  26.08397   1.67785
   17   5.22034  29.09145   1.67785
   17   3.48397  32.09893   1.67785
   17   1.74760  35.10641   1.67785
   17   0.01123  38.11388   1.67785
   17  -1.72514  41.12136   1.67785
   17  -3.46150  44.12884   1.67785
   17  -5.19787  47.13631   1.67785
   17  -6.93424  50.14379   1.67785
   17  -8.67061  53.15127   1.67785
   17 -10.40697  56.15874   1.67785
   17 -12.14334  59.16622   1.67785
   17 -13.87971  62.17370   1.67785
   17  24.32038   2.02416   1.67785
   17  22.58401   5.03163   1.67785
   17  20.84764   8.03911   1.67785
   17  19.11128  11.04659   1.67785
   17  17.37491  14.05407   1.67785
   17  15.63854  17.06154   1.67785
   17  13.90217  20.06902   1.67785
   17  12.16581  23.07650   1.67785
   17  10.42944  26.08397   1.67785
   17   8.69307  29.09145   1.67785
   17   6.95670  32.09893   1.67785
   17   5.22034  35.10641   1.67785
   17   3.48397  38.11388   1.67785
   17   1.74760  41.12136   1.67785
   17   0.01123  44.12884   1.67785
   17  -1.72514  47.13631   1.67785
   17  -3.46150  50.14379   1.67785
   17  -5.19787  53.15127   1.67785
   17  -6.93424  56.15874   1.67785
   17  -8.67061  59.16622   1.67785
   17 -10.40698  62.17370   1.67785
   17  27.79312   2.02416   1.67785
   17  26.05675   5.03163   1.67785
   17  24.32038   8.03911   1.67785
   17  22.58401  11.04659   1.67785
   17  20.84764  14.05407   1.67785
   17  19.11128  17.06154   1.67785
   17  17.37491  20.06902   1.67785
   17  15.63854  23.07650   1.67785
   17  13.90217  26.08397   1.67785
   17  12.16581  29.09145   1.67785
   17  10.42944  32.09893   1.67785
   17   8.69307  35.10641   1.67785
   17   6.95670  38.11388   1.67785
   17   5.22034  41.12136   1.67785
   17   3.48397  44.12884   1.67785
   17   1.74760  47.13631   1.67785
   17   0.01123  50.14379   1.67785
   17  -1.72514  53.15127   1.67785
   17  -3.46150  56.15874   1.67785
   17  -5.19787  59.16622   1.67785
   17  -6.93424  62.17370   1.67785
   17  31.26585   2.02416   1.67785
   17  29.52948   5.03163   1.67785
   17  27.79312   8.03911   1.67785
   17  26.05675  11.04659   1.67785
   17  24.32038  14.05407   1.67785
   17  22.58401  17.06154   1.67785
   17  20.84764  20.06902   1.67785
   17  19.11128  23.07650   1.67785
   17  17.37491  26.08397   1.67785
   17  15.63854  29.09145   1.67785
   17  13.90217  32.09893   1.67785
   17  12.16581  35.10641   1.67785
   17  10.42944  38.11388   1.67785
   17   8.69307  41.12136   1.67785
   17   6.95671  44.12884   1.67785
   17   5.22034  47.13631   1.67785
   17   3.48397  50.14379   1.67785
   17   1.74760  53.15127   1.67785
   17   0.01123  56.15874   1.67785
   17  -1.72513  59.16622   1.67785
   17  -3.46150  62.17370   1.67785
   17  34.73859   2.02416   1.67785
   17  33.00222   5.03163   1.67785
   17  31.26585   8.03911   1.67785
   17  29.52949  11.04659   1.67785
   17  27.79312  14.05407   1.67785
   17  26.05675  17.06154   1.67785
   17  24.32038  20.06902   1.67785
   17  22.58402  23.07650   1.67785
   17  20.84765  26.08397   1.67785
   17  19.11128  29.09145   1.67785
   17  17.37491  32.09893   1.67785
   17  15.63855  35.10641   1.67785
   17  13.90218  38.11388   1.67785
   17  12.16581  41.12136   1.67785
   17  10.42944  44.12884   1.67785
   17   8.69308  47.13631   1.67785
   17   6.95671  50.14379   1.67785
   17   5.22034  53.15127   1.67785
   17   3.48397  56.15874   1.67785
   17   1.74760  59.16622   1.67785
   17   0.01123  62.17370   1.67785
   17  38.21132   2.02416   1.67785
   17  36.47496   5.03163   1.67785
   17  34.73859   8.03911   1.67785
   17  33.00222  11.04659   1.67785
   17  31.26585  14.05407   1.67785
   17  29.52948  17.06154   1.67785
   17  27.79312  20.06902   1.67785
   17  26.05675  23.07650   1.67785
   17  24.32038  26.08397   1.67785
   17  22.58401  29.09145   1.67785
   17  20.84764  32.09893   1.67785
   17  19.11128  35.10641   1.67785
   17  17.37491  38.11388   1.67785
   17  15.63854  41.12136   1.67785
   17  13.90218  44.12884   1.67785
   17  12.16581  47.13631   1.67785
   17  10.42944  50.14379   1.67785
   17   8.69307  53.15127   1.67785
   17   6.95670  56.15874   1.67785
   17   5.22034  59.16622   1.67785
   17   3.48397  62.17370   1.67785
   17  41.68406   2.02416   1.67785
   17  39.94769   5.03163   1.67785
   17  38.21132   8.03911   1.67785
   17  36.47496  11.04659   1.67785
   17  34.73859  14.05407   1.67785
   17  33.00222  17.06154   1.67785
   17  31.26585  20.06902   1.67785
   17  29.52949  23.07650   1.67785
   17  27.79312  26.08397   1.67785
   17  26.05675  29.09145   1.67785
   17  24.32038  32.09893   1.67785
   17  22.58401  35.10641   1.67785
   17  20.84765  38.11388   1.67785
   17  19.11128  41.12136   1.67785
   17  17.37491  44.12884   1.67785
   17  15.63854  47.13631   1.67785
   17  13.90218  50.14379   1.67785
   17  12.16581  53.15127   1.67785
   17  10.42944  56.15874   1.67785
   17   8.69307  59.16622   1.67785
   17   6.95670  62.17370   1.67785
   17  45.15680   2.02416   1.67785
   17  43.42043   5.03163   1.67785
   17  41.68406   8.03911   1.67785
   17  39.94769  11.04659   1.67785
   17  38.21133  14.05407   1.67785
   17  36.47496  17.06154   1.67785
   17  34.73859  20.06902   1.67785
   17  33.00222  23.07650   1.67785
   17  31.26585  26.08397   1.67785
   17  29.52949  29.09145   1.67785
   17  27.79312  32.09893   1.67785
   17  26.05675  35.10641   1.67785
   17  24.32038  38.11388   1.67785
   17  22.58401  41.12136   1.67785
   17  20.84765  44.12884   1.67785
   17  19.11128  47.13631   1.67785
   17  17.37491  50.14379   1.67785
   17  15.63854  53.15127   1.67785
   17  13.90218  56.15874   1.67785
   17  12.16581  59.16622   1.67785
   17  10.42944  62.17370   1.67785
   17  48.62953   2.02416   1.67785
   17  46.89316   5.03163   1.67785
   17  45.15679   8.03911   1.67785
   17  43.42043  11.04659   1.67785
   17  41.68406  14.05407   1.67785
   17  39.94769  17.06154   1.67785
   17  38.21132  20.06902   1.67785
   17  36.47495  23.07650   1.67785
   17  34.73859  26.08397   1.67785
   17  33.00222  29.09145   1.67785
   17  31.26585  32.09893   1.67785
   17  29.52948  35.10641   1.67785
   17  27.79312  38.11388   1.67785
   17  26.05675  41.12136   1.67785
   17  24.32038  44.12884   1.67785
   17  22.58401  47.13631   1.67785
   17  20.84764  50.14379   1.67785
   17  19.11128  53.15127   1.67785
   17  17.37491  56.15874   1.67785
   17  15.63854  59.16622   1.67785
   17  13.90217  62.17370   1.67785
   17  52.10226   2.02416   1.67785
   17  50.36590   5.03163   1.67785
   17  48.62953   8.03911   1.67785
   17  46.89316  11.04659   1.67785
   17  45.15679  14.05407   1.67785
   17  43.42043  17.06154   1.67785
   17  41.68406  20.06902   1.67785
   17  39.94769  23.07650   1.67785
   17  38.21132  26.08397   1.67785
   17  36.47495  29.09145   1.67785
   17  34.73859  32.09893   1.67785
   17  33.00222  35.10641   1.67785
   17  31.26585  38.11388   1.67785
   17  29.52948  41.12136   1.67785
   17  27.79312  44.12884   1.67785
   17  26.05675  47.13631   1.67785
   17  24.32038  50.14379   1.67785
   17  22.58401  53.15127   1.67785
   17  20.84764  56.15874   1.67785
   17  19.11128  59.16622   1.67785
   17  17.37491  62.17370   1.67785
   17  55.57500   2.02416   1.67785
   17  53.83863   5.03163   1.67785
   17  52.10226   8.03911   1.67785
   17  50.36590  11.04659   1.67785
   17  48.62953  14.05407   1.67785
   17  46.89316  17.06154   1.67785
   17  45.15680  20.06902   1.67785
   17  43.42043  23.07650   1.67785
   17  41.68406  26.08397   1.67785
   17  39.94769  29.09145   1.67785
   17  38.21132  32.09893   1.67785
   17  36.47496  35.10641   1.67785
   17  34.73859  38.11388   1.67785
   17  33.00222  41.12136   1.67785
   17  31.26585  44.12884   1.67785
   17  29.52949  47.13631   1.67785
   17  27.79312  50.14379   1.67785
   17  26.05675  53.15127   1.67785
   17  24.32038  56.15874   1.67785
   17  22.58401  59.16622   1.67785
   17  20.84764  62.17370   1.67785
   17  59.04774   2.02416   1.67785